[Molden Format]
[Title]
Written by TeraChem
[Atoms] Angs
C   1   6      0.00000    0.00000    0.00000
S   2   16      0.00000    0.00000    1.62506
H   3   1      0.91509    0.00000   -0.56708
H   4   1     -0.91509   -0.00001   -0.56708
[GTO]
    1 0
 s    6 1.00
         3047.524900             0.001835
          457.369510             0.014037
          103.948690             0.068843
           29.210155             0.232184
            9.286663             0.467941
            3.163927             0.362312
 s    3 1.00
            7.868272            -0.119332
            1.881288            -0.160854
            0.544249             1.143456
 s    1 1.00
            0.168714             1.000000
 p    3 1.00
            7.868272             0.068999
            1.881288             0.316424
            0.544249             0.744308
 p    1 1.00
            0.168714             1.000000
 d    1 1.00
            0.800000             1.000000

    2 0
 s    6 1.00
        21917.100000             0.001869
         3301.490000             0.014230
          754.146000             0.069696
          212.711000             0.238487
           67.989600             0.483307
           23.051500             0.338074
 s    6 1.00
          423.735000            -0.002377
          100.710000            -0.031693
           32.159900            -0.113317
           11.807900             0.056090
            4.631100             0.592255
            1.870250             0.455006
 s    3 1.00
            2.615840            -0.250373
            0.922167             0.066957
            0.341287             1.054506
 s    1 1.00
            0.117167             1.000000
 p    6 1.00
          423.735000             0.004061
          100.710000             0.030681
           32.159900             0.130452
           11.807900             0.327205
            4.631100             0.452851
            1.870250             0.256042
 p    3 1.00
            2.615840            -0.014511
            0.922167             0.310263
            0.341287             0.754483
 p    1 1.00
            0.117167             1.000000
 d    1 1.00
            0.650000             1.000000

    3 0
 s    3 1.00
           18.731137             0.033495
            2.825394             0.234727
            0.640122             0.813757
 s    1 1.00
            0.161278             1.000000

    4 0
 s    3 1.00
           18.731137             0.033495
            2.825394             0.234727
            0.640122             0.813757
 s    1 1.00
            0.161278             1.000000

[MO]
 Ene= 0.0
 Spin= Alpha
 Occup=     2.0000
    1    0.00394
    2    0.00104
    3   -0.07326
    4    0.00000
    5    0.00000
    6    0.08133
    7    0.00000
    8    0.00000
    9   -0.00835
   10   -0.00718
   11   -0.00092
   12    0.01096
   13   -0.00000
   14    0.00000
   15   -0.00000
   16    0.28160
   17   -0.62759
   18    0.67278
   19    0.34952
   20    0.00000
   21   -0.00000
   22   -0.05470
   23   -0.00000
   24    0.00000
   25    0.11789
   26   -0.00000
   27   -0.00000
   28    0.04842
   29    0.00474
   30    0.00374
   31    0.00411
   32    0.00000
   33   -0.00000
   34   -0.00000
   35   -0.02457
   36   -0.01430
   37   -0.02457
   38   -0.01430
 Ene= 0.0
 Spin= Alpha
 Occup=     2.0000
    1   -0.01963
    2    0.01570
    3    0.03556
    4   -0.00000
    5   -0.00000
    6   -0.01305
    7   -0.00000
    8   -0.00000
    9    0.00590
   10    0.00230
   11   -0.00039
   12   -0.00142
   13    0.00000
   14    0.00000
   15    0.00000
   16    0.98249
   17   -0.28104
   18   -0.19232
   19   -0.08862
   20   -0.00000
   21    0.00000
   22    0.03012
   23    0.00000
   24   -0.00000
   25   -0.04609
   26    0.00000
   27   -0.00000
   28   -0.01443
   29    0.00472
   30    0.00502
   31    0.00905
   32   -0.00000
   33    0.00000
   34    0.00000
   35    0.01020
   36    0.00371
   37    0.01020
   38    0.00371
 Ene= 0.0
 Spin= Alpha
 Occup=     2.0000
    1    0.53192
    2   -0.31063
    3   -0.35053
    4    0.00000
    5    0.00000
    6   -0.12494
    7    0.00000
    8    0.00000
    9   -0.06972
   10   -0.01048
   11    0.01186
   12   -0.02252
   13   -0.00000
   14   -0.00000
   15   -0.00000
   16    0.05463
   17    0.06929
   18   -0.02216
   19    0.15206
   20   -0.00000
   21   -0.00000
   22   -0.32630
   23   -0.00000
   24    0.00000
   25    0.34660
   26   -0.00000
   27    0.00000
   28    0.04205
   29    0.02468
   30    0.02364
   31   -0.06312
   32    0.00000
   33   -0.00000
   34   -0.00000
   35   -0.08544
   36   -0.01074
   37   -0.08544
   38   -0.01074
 Ene= 0.0
 Spin= Alpha
 Occup=     2.0000
    1   -0.54018
    2    0.02031
    3    0.01703
    4    0.00000
    5   -0.00000
    6   -0.17867
    7   -0.00000
    8   -0.00000
    9   -0.08993
   10    0.01427
   11   -0.00050
   12   -0.00705
   13    0.00000
   14   -0.00000
   15    0.00000
   16    0.01041
   17    0.02933
   18    0.00349
   19    0.07608
   20    0.00000
   21    0.00000
   22   -0.80225
   23   -0.00000
   24   -0.00000
   25    0.16200
   26   -0.00000
   27    0.00000
   28    0.04137
   29    0.00963
   30    0.00860
   31   -0.02336
   32    0.00000
   33    0.00000
   34    0.00000
   35    0.07191
   36    0.04591
   37    0.07191
   38    0.04591
 Ene= 0.0
 Spin= Alpha
 Occup=     2.0000
    1   -0.00000
    2   -0.00000
    3   -0.00000
    4    0.06438
    5    0.00000
    6   -0.00000
    7    0.03587
    8    0.00000
    9   -0.00000
   10    0.00000
   11   -0.00000
   12    0.00000
   13   -0.00000
   14   -0.00336
   15   -0.00000
   16    0.00000
   17    0.00000
   18    0.00000
   19    0.00000
   20   -0.98906
   21   -0.00000
   22    0.00000
   23   -0.00742
   24   -0.00000
   25    0.00000
   26    0.00471
   27    0.00000
   28   -0.00000
   29   -0.00000
   30   -0.00000
   31   -0.00000
   32   -0.00000
   33   -0.00354
   34   -0.00000
   35    0.03359
   36    0.02045
   37   -0.03359
   38   -0.02045
 Ene= 0.0
 Spin= Alpha
 Occup=     2.0000
    1   -0.00000
    2   -0.00000
    3   -0.00000
    4   -0.00000
    5    0.00008
    6    0.00000
    7    0.00000
    8   -0.00044
    9    0.00000
   10   -0.00000
   11    0.00000
   12    0.00000
   13   -0.00000
   14   -0.00000
   15    0.00036
   16    0.00000
   17    0.00000
   18    0.00000
   19   -0.00000
   20    0.00000
   21   -0.99321
   22   -0.00000
   23    0.00000
   24   -0.02234
   25   -0.00000
   26   -0.00000
   27    0.00474
   28   -0.00000
   29    0.00000
   30    0.00000
   31   -0.00000
   32   -0.00000
   33   -0.00000
   34    0.00054
   35   -0.00000
   36   -0.00000
   37   -0.00000
   38   -0.00000
 Ene= 0.0
 Spin= Alpha
 Occup=     2.0000
    1   -0.65791
    2   -0.17467
    3   -0.15241
    4    0.00000
    5    0.00000
    6    0.01519
    7    0.00000
    8    0.00000
    9    0.00360
   10   -0.00808
   11    0.00806
   12   -0.00456
   13   -0.00000
   14   -0.00000
   15   -0.00000
   16    0.04408
   17    0.19707
   18    0.03204
   19    0.05561
   20    0.00000
   21    0.00000
   22    0.43653
   23    0.00000
   24    0.00000
   25    0.10645
   26   -0.00000
   27    0.00000
   28    0.00714
   29    0.00838
   30    0.00816
   31   -0.01822
   32    0.00000
   33   -0.00000
   34   -0.00000
   35   -0.06553
   36   -0.02444
   37   -0.06553
   38   -0.02444
 Ene= 0.0
 Spin= Alpha
 Occup=     2.0000
    1   -0.13615
    2   -0.06579
    3   -0.04569
    4   -0.00000
    5    0.00000
    6   -0.02572
    7   -0.00000
    8    0.00000
    9   -0.00286
   10   -0.00091
   11    0.00303
   12   -0.00481
   13   -0.00000
   14    0.00000
   15   -0.00000
   16   -0.16763
   17   -0.81766
   18   -0.16360
   19   -0.05034
   20    0.00000
   21    0.00000
   22    0.05686
   23    0.00000
   24    0.00000
   25    0.02649
   26    0.00000
   27    0.00000
   28   -0.00632
   29    0.00156
   30    0.00165
   31   -0.01223
   32   -0.00000
   33    0.00000
   34   -0.00000
   35   -0.01579
   36   -0.00326
   37   -0.01579
   38   -0.00326
 Ene= 0.0
 Spin= Alpha
 Occup=     2.0000
    1    0.05844
    2    0.10562
    3    0.05845
    4    0.00000
    5   -0.00000
    6   -0.36580
    7    0.00000
    8   -0.00000
    9   -0.18123
   10    0.02871
   11   -0.00561
   12   -0.01437
   13    0.00000
   14   -0.00000
   15    0.00000
   16   -0.00208
   17   -0.01747
   18    0.00397
   19    0.14994
   20    0.00000
   21   -0.00000
   22    0.29371
   23    0.00000
   24   -0.00000
   25    0.35999
   26   -0.00000
   27    0.00000
   28    0.07350
   29    0.02109
   30    0.01908
   31   -0.04632
   32    0.00000
   33   -0.00000
   34    0.00000
   35    0.15974
   36    0.09999
   37    0.15974
   38    0.09999
 Ene= 0.0
 Spin= Alpha
 Occup=     2.0000
    1   -0.00000
    2   -0.00000
    3   -0.00000
    4    0.44231
    5    0.00000
    6    0.00000
    7    0.23724
    8    0.00000
    9    0.00000
   10   -0.00000
   11   -0.00000
   12    0.00000
   13   -0.00000
   14   -0.02514
   15   -0.00000
   16   -0.00000
   17   -0.00000
   18   -0.00000
   19   -0.00000
   20    0.10065
   21    0.00000
   22   -0.00000
   23    0.10375
   24    0.00000
   25   -0.00000
   26    0.00122
   27    0.00000
   28   -0.00000
   29   -0.00000
   30   -0.00000
   31    0.00000
   32   -0.00000
   33   -0.02887
   34   -0.00000
   35    0.23006
   36    0.14950
   37   -0.23006
   38   -0.14950
 Ene= 0.0
 Spin= Alpha
 Occup=     2.0000
    1    0.00000
    2   -0.00000
    3   -0.00000
    4    0.00000
    5   -0.15161
    6    0.00000
    7    0.00000
    8   -0.06957
    9    0.00000
   10   -0.00000
   11    0.00000
   12   -0.00000
   13   -0.00000
   14    0.00000
   15   -0.02216
   16    0.00000
   17   -0.00000
   18    0.00000
   19    0.00000
   20   -0.00000
   21    0.25343
   22    0.00000
   23    0.00000
   24   -0.67339
   25   -0.00000
   26    0.00000
   27   -0.37880
   28   -0.00000
   29   -0.00000
   30    0.00000
   31    0.00000
   32   -0.00000
   33   -0.00000
   34    0.02599
   35   -0.00000
   36   -0.00000
   37   -0.00000
   38   -0.00000
 Ene= 0.0
 Spin= Alpha
 Occup=     1.0000
    1    0.00000
    2   -0.00000
    3    0.00000
    4   -0.07030
    5   -0.00000
    6   -0.00000
    7   -0.01989
    8   -0.00000
    9   -0.00000
   10   -0.00000
   11    0.00000
   12   -0.00000
   13    0.00000
   14    0.03061
   15    0.00000
   16    0.00000
   17   -0.00000
   18   -0.00000
   19    0.00000
   20   -0.26426
   21   -0.00000
   22   -0.00000
   23    0.70981
   24    0.00000
   25    0.00000
   26    0.42445
   27    0.00000
   28    0.00000
   29    0.00000
   30    0.00000
   31   -0.00000
   32    0.00000
   33   -0.00813
   34   -0.00000
   35   -0.08234
   36   -0.13959
   37    0.08234
   38    0.13959
 Ene= 0.0
 Spin= Alpha
 Occup=     1.0000
    1   -0.00000
    2    0.00000
    3    0.00000
    4   -0.00000
    5    0.58700
    6   -0.00000
    7   -0.00000
    8    0.57180
    9   -0.00000
   10   -0.00000
   11    0.00000
   12   -0.00000
   13   -0.00000
   14   -0.00000
   15    0.00216
   16   -0.00000
   17    0.00000
   18   -0.00000
   19    0.00000
   20   -0.00000
   21    0.09658
   22   -0.00000
   23    0.00000
   24   -0.28359
   25    0.00000
   26    0.00000
   27   -0.28060
   28    0.00000
   29   -0.00000
   30    0.00000
   31   -0.00000
   32   -0.00000
   33    0.00000
   34   -0.06345
   35   -0.00000
   36   -0.00000
   37   -0.00000
   38   -0.00000
 Ene= 0.0
 Spin= Alpha
 Occup=     0.0000
    1    0.01761
    2    0.26787
    3   -0.50245
    4   -0.00000
    5    0.00000
    6   -0.04464
    7    0.00000
    8   -0.00000
    9   -0.31373
   10    0.02202
   11    0.02112
   12   -0.24244
   13    0.00000
   14    0.00000
   15   -0.00000
   16   -0.17849
   17    0.77000
   18   -6.59429
   19    1.01186
   20    0.00000
   21   -0.00000
   22    0.02195
   23   -0.00000
   24    0.00000
   25   -0.12718
   26   -0.00000
   27    0.00000
   28   -0.27284
   29    2.60439
   30    2.60278
   31    2.78631
   32    0.00000
   33    0.00000
   34   -0.00000
   35    0.00991
   36   -0.05820
   37    0.00991
   38   -0.05820
 Ene= 0.0
 Spin= Alpha
 Occup=     0.0000
    1   -0.25083
    2   -0.73929
    3    5.68161
    4   -0.00000
    5    0.00000
    6   -0.16319
    7    0.00000
    8   -0.00000
    9    1.74458
   10   -0.64612
   11   -0.78965
   12   -0.30350
   13    0.00000
   14   -0.00000
   15    0.00000
   16   -0.01115
   17    0.11924
   18   -0.44687
   19   -3.17982
   20    0.00000
   21   -0.00000
   22   -0.05263
   23   -0.00000
   24    0.00000
   25    0.38303
   26   -0.00000
   27    0.00000
   28    2.15043
   29    0.51211
   30    0.50145
   31   -0.03113
   32    0.00000
   33    0.00000
   34   -0.00000
   35   -0.07007
   36   -0.52974
   37   -0.07007
   38   -0.52974
 Ene= 0.0
 Spin= Alpha
 Occup=     0.0000
    1   -0.42443
    2    3.13418
    3    1.05891
    4   -0.00000
    5    0.00000
    6    0.13555
    7    0.00000
    8   -0.00000
    9   -1.12602
   10   -1.59940
   11   -1.60011
   12   -1.84095
   13    0.00000
   14   -0.00000
   15   -0.00000
   16    0.00680
   17   -0.05459
   18    0.14147
   19    0.77593
   20    0.00000
   21   -0.00000
   22    0.04800
   23   -0.00000
   24    0.00000
   25   -0.23570
   26   -0.00000
   27    0.00000
   28   -0.44720
   29   -0.17931
   30   -0.20583
   31    0.17805
   32    0.00000
   33    0.00000
   34   -0.00000
   35    0.19735
   36   -0.92161
   37    0.19735
   38   -0.92161
 Ene= 0.0
 Spin= Alpha
 Occup=     0.0000
    1    0.10549
    2   -1.69857
    3    1.73769
    4   -0.00000
    5    0.00000
    6    0.42790
    7    0.00000
    8   -0.00001
    9   -2.26490
   10    0.64656
   11    0.37091
   12    0.35171
   13    0.00000
   14   -0.00000
   15    0.00000
   16   -0.00314
   17   -0.02871
   18    0.03972
   19    1.58783
   20    0.00000
   21   -0.00000
   22    0.00574
   23   -0.00000
   24    0.00000
   25   -0.05975
   26   -0.00000
   27    0.00000
   28   -0.95418
   29   -0.18103
   30   -0.22563
   31   -0.03609
   32    0.00000
   33    0.00000
   34   -0.00000
   35    0.07355
   36   -1.80203
   37    0.07355
   38   -1.80203
 Ene= 0.0
 Spin= Alpha
 Occup=     0.0000
    1   -0.00000
    2    0.00000
    3   -0.00000
    4   -0.66823
    5   -0.00000
    6   -0.00000
    7    3.11031
    8    0.00001
    9    0.00000
   10   -0.00000
   11   -0.00000
   12   -0.00000
   13   -0.00000
   14   -0.14062
   15   -0.00000
   16    0.00000
   17    0.00000
   18   -0.00000
   19   -0.00000
   20    0.02283
   21    0.00000
   22   -0.00000
   23   -0.10826
   24   -0.00000
   25    0.00000
   26   -0.63177
   27   -0.00000
   28    0.00000
   29    0.00000
   30    0.00000
   31    0.00000
   32   -0.00000
   33    0.26818
   34    0.00000
   35    0.03759
   36   -2.23601
   37   -0.03759
   38    2.23601
 Ene= 0.0
 Spin= Alpha
 Occup=     0.0000
    1    0.06124
    2   -0.15645
    3   -0.04454
    4    0.00000
    5   -0.00000
    6   -0.41817
    7   -0.00000
    8   -0.00000
    9   -0.53560
   10    0.44391
   11    0.28203
   12   -0.71024
   13    0.00000
   14   -0.00000
   15    0.00000
   16    0.02073
   17   -0.02106
   18    0.23685
   19   -0.15384
   20   -0.00000
   21    0.00000
   22    0.31547
   23    0.00000
   24   -0.00000
   25   -1.38108
   26   -0.00000
   27    0.00000
   28    0.88842
   29   -0.02497
   30   -0.01533
   31    0.65567
   32   -0.00000
   33   -0.00000
   34   -0.00000
   35   -0.17896
   36    0.10526
   37   -0.17896
   38    0.10526
 Ene= 0.0
 Spin= Alpha
 Occup=     0.0000
    1   -0.00000
    2    0.00000
    3    0.00000
    4    0.01503
    5    0.00000
    6   -0.00000
    7    0.47272
    8    0.00000
    9   -0.00000
   10    0.00000
   11   -0.00000
   12    0.00000
   13   -0.00000
   14   -0.34124
   15   -0.00000
   16   -0.00000
   17    0.00000
   18   -0.00000
   19    0.00000
   20   -0.23533
   21   -0.00000
   22   -0.00000
   23    0.97880
   24    0.00000
   25    0.00000
   26   -1.26659
   27   -0.00000
   28   -0.00000
   29   -0.00000
   30    0.00000
   31   -0.00000
   32    0.00000
   33    0.06320
   34    0.00000
   35   -0.61665
   36    0.51485
   37    0.61665
   38   -0.51485
 Ene= 0.0
 Spin= Alpha
 Occup=     0.0000
    1    0.00000
    2   -0.00000
    3    0.00000
    4    0.00000
    5   -0.49825
    6    0.00000
    7   -0.00000
    8    0.84631
    9   -0.00000
   10   -0.00000
   11    0.00000
   12   -0.00000
   13   -0.00000
   14   -0.00000
   15    0.02021
   16   -0.00000
   17   -0.00000
   18   -0.00000
   19    0.00000
   20    0.00000
   21   -0.24768
   22    0.00000
   23   -0.00000
   24    1.02199
   25   -0.00000
   26    0.00001
   27   -1.37259
   28    0.00000
   29   -0.00000
   30   -0.00000
   31   -0.00000
   32    0.00000
   33   -0.00000
   34    0.12969
   35    0.00000
   36   -0.00000
   37    0.00000
   38   -0.00000
 Ene= 0.0
 Spin= Alpha
 Occup=     0.0000
    1   -0.01290
    2   -0.26885
    3    0.26733
    4   -0.00000
    5   -0.00000
    6   -0.72139
    7   -0.00000
    8    0.00000
    9    0.89605
   10   -0.25831
   11   -0.10379
   12   -0.16223
   13   -0.00000
   14    0.00000
   15   -0.00000
   16   -0.02121
   17   -0.08548
   18   -0.32212
   19    0.90513
   20   -0.00000
   21    0.00000
   22    0.05121
   23    0.00000
   24   -0.00000
   25   -0.06896
   26   -0.00000
   27    0.00000
   28   -0.07550
   29   -0.61653
   30   -0.62197
   31    0.12664
   32    0.00000
   33    0.00000
   34    0.00000
   35    0.10214
   36    0.04352
   37    0.10214
   38    0.04352
 Ene= 0.0
 Spin= Alpha
 Occup=     0.0000
    1   -0.00013
    2   -0.10062
    3   -0.04320
    4    0.00000
    5    0.00000
    6   -0.43009
    7    0.00000
    8   -0.00000
    9   -0.02396
   10    0.24966
   11    0.00958
   12   -0.43051
   13    0.00000
   14   -0.00000
   15    0.00000
   16    0.02826
   17   -0.03427
   18    0.25652
   19   -0.63889
   20    0.00000
   21   -0.00000
   22   -0.10438
   23   -0.00000
   24    0.00000
   25    0.43524
   26    0.00000
   27   -0.00000
   28   -0.92432
   29   -0.04777
   30   -0.03557
   31    0.93062
   32   -0.00000
   33    0.00000
   34   -0.00000
   35   -0.15729
   36   -0.07469
   37   -0.15729
   38   -0.07469
 Ene= 0.0
 Spin= Alpha
 Occup=     0.0000
    1   -0.00000
    2    0.00000
    3    0.00000
    4    0.28969
    5    0.00000
    6    0.00000
    7    0.47203
    8    0.00000
    9   -0.00000
   10    0.00000
   11   -0.00000
   12    0.00000
   13   -0.00000
   14   -0.54479
   15   -0.00000
   16   -0.00000
   17    0.00000
   18   -0.00000
   19    0.00000
   20    0.16055
   21    0.00000
   22    0.00000
   23   -0.64858
   24   -0.00000
   25   -0.00000
   26    0.50889
   27    0.00000
   28    0.00000
   29   -0.00000
   30    0.00000
   31   -0.00000
   32    0.00000
   33    0.02657
   34    0.00000
   35   -0.89800
   36    0.27781
   37    0.89800
   38   -0.27781
 Ene= 0.0
 Spin= Alpha
 Occup=     0.0000
    1   -0.07314
    2    0.06222
    3    0.24801
    4   -0.00000
    5   -0.00000
    6   -0.06124
    7   -0.00000
    8   -0.00000
    9   -0.25316
   10    0.58472
   11   -0.67583
   12    0.06374
   13    0.00000
   14    0.00000
   15    0.00000
   16   -0.01114
   17    0.01907
   18   -0.08439
   19    0.29756
   20   -0.00000
   21   -0.00000
   22   -0.03083
   23    0.00000
   24    0.00000
   25    0.10701
   26   -0.00000
   27   -0.00000
   28   -0.01076
   29   -0.11058
   30    0.00683
   31   -0.20716
   32   -0.00000
   33   -0.00000
   34    0.00000
   35   -0.92979
   36    0.39164
   37   -0.92979
   38    0.39164
 Ene= 0.0
 Spin= Alpha
 Occup=     0.0000
    1    0.00000
    2    0.00000
    3   -0.00000
    4   -0.00000
    5    0.91155
    6   -0.00000
    7    0.00000
    8   -0.99977
    9    0.00000
   10    0.00000
   11    0.00000
   12    0.00000
   13    0.00000
   14    0.00000
   15   -0.16822
   16   -0.00000
   17    0.00000
   18   -0.00000
   19    0.00000
   20    0.00000
   21   -0.14310
   22    0.00000
   23   -0.00000
   24    0.58533
   25   -0.00000
   26    0.00000
   27   -0.31535
   28    0.00000
   29    0.00000
   30    0.00000
   31   -0.00000
   32   -0.00000
   33    0.00000
   34   -0.17677
   35   -0.00000
   36    0.00000
   37   -0.00000
   38    0.00000
 Ene= 0.0
 Spin= Alpha
 Occup=     0.0000
    1   -0.00000
    2   -0.00000
    3    0.00000
    4   -0.98071
    5   -0.00000
    6    0.00000
    7    0.38180
    8    0.00000
    9   -0.00000
   10    0.00000
   11   -0.00000
   12   -0.00000
   13    0.00000
   14    0.30301
   15    0.00000
   16   -0.00000
   17    0.00000
   18   -0.00000
   19    0.00000
   20    0.04200
   21    0.00000
   22   -0.00000
   23   -0.18184
   24   -0.00000
   25    0.00000
   26    0.07445
   27    0.00000
   28   -0.00000
   29   -0.00000
   30    0.00000
   31    0.00000
   32    0.00000
   33    0.07944
   34    0.00000
   35    0.09244
   36    0.48198
   37   -0.09244
   38   -0.48198
 Ene= 0.0
 Spin= Alpha
 Occup=     0.0000
    1    0.00610
    2    0.00895
    3   -0.02356
    4    0.00000
    5   -0.00000
    6   -0.01626
    7   -0.00000
    8    0.00000
    9    0.03546
   10    0.05636
   11   -0.04922
   12    0.01697
   13   -0.00000
   14    0.00000
   15   -0.00000
   16    0.00073
   17   -0.00283
   18    0.00306
   19   -0.01294
   20   -0.00000
   21    0.00000
   22    0.00448
   23    0.00000
   24   -0.00000
   25   -0.01390
   26   -0.00000
   27    0.00000
   28    0.00551
   29   -0.85201
   30    0.86896
   31   -0.00468
   32    0.00000
   33    0.00000
   34   -0.00000
   35    0.07402
   36   -0.05376
   37    0.07402
   38   -0.05376
 Ene= 0.0
 Spin= Alpha
 Occup=     0.0000
    1    0.00389
    2    0.25017
    3   -0.16389
    4   -0.00000
    5   -0.00000
    6   -0.64445
    7   -0.00000
    8    0.00000
    9    0.24099
   10    0.39109
   11   -0.24845
   12    0.41441
   13    0.00000
   14    0.00000
   15    0.00000
   16    0.00931
   17   -0.03085
   18    0.04975
   19   -0.11502
   20   -0.00000
   21    0.00000
   22    0.06218
   23    0.00000
   24   -0.00000
   25   -0.17585
   26    0.00000
   27    0.00000
   28   -0.07731
   29    0.27832
   30    0.15264
   31   -0.26037
   32    0.00000
   33   -0.00000
   34   -0.00000
   35    0.03529
   36   -0.43778
   37    0.03529
   38   -0.43778
 Ene= 0.0
 Spin= Alpha
 Occup=     0.0000
    1   -0.00000
    2   -0.00000
    3    0.00000
    4   -0.30701
    5   -0.00000
    6   -0.00000
    7   -0.06822
    8   -0.00000
    9   -0.00000
   10   -0.00000
   11    0.00000
   12    0.00000
   13    0.00000
   14   -0.69292
   15   -0.00000
   16    0.00000
   17   -0.00000
   18    0.00000
   19   -0.00000
   20   -0.02802
   21   -0.00000
   22    0.00000
   23    0.08238
   24    0.00000
   25   -0.00000
   26    0.12216
   27    0.00000
   28   -0.00000
   29    0.00000
   30    0.00000
   31   -0.00000
   32   -0.00000
   33   -0.82984
   34   -0.00000
   35    0.07924
   36   -0.05666
   37   -0.07924
   38    0.05666
 Ene= 0.0
 Spin= Alpha
 Occup=     0.0000
    1   -0.00000
    2    0.00000
    3    0.00000
    4    0.00000
    5   -0.26476
    6    0.00000
    7   -0.00000
    8    0.02430
    9    0.00000
   10    0.00000
   11   -0.00000
   12   -0.00000
   13   -0.00000
   14    0.00000
   15   -0.71402
   16   -0.00000
   17    0.00000
   18   -0.00000
   19    0.00000
   20    0.00000
   21   -0.01647
   22   -0.00000
   23   -0.00000
   24    0.04300
   25    0.00000
   26   -0.00000
   27    0.10171
   28    0.00000
   29   -0.00000
   30   -0.00000
   31    0.00000
   32   -0.00000
   33    0.00000
   34   -0.84465
   35   -0.00000
   36    0.00000
   37   -0.00000
   38    0.00000
 Ene= 0.0
 Spin= Alpha
 Occup=     0.0000
    1    0.00447
    2   -0.13770
    3    0.06158
    4    0.00000
    5   -0.00000
    6   -0.32693
    7    0.00000
    8   -0.00000
    9   -0.24431
   10   -0.78634
   11    0.02013
   12    0.44104
   13    0.00000
   14    0.00000
   15   -0.00000
   16    0.01260
   17   -0.02694
   18    0.08547
   19   -0.06920
   20    0.00000
   21   -0.00000
   22    0.08077
   23   -0.00000
   24    0.00000
   25   -0.20277
   26   -0.00000
   27    0.00000
   28   -0.25354
   29    0.08470
   30    0.16521
   31    0.02855
   32   -0.00000
   33    0.00000
   34   -0.00000
   35   -0.20405
   36    0.13517
   37   -0.20405
   38    0.13517
 Ene= 0.0
 Spin= Alpha
 Occup=     0.0000
    1    0.03592
    2   -0.05613
    3   -0.08684
    4   -0.00000
    5    0.00000
    6    0.18132
    7   -0.00000
    8    0.00000
    9   -0.11259
   10    0.02690
   11   -0.66317
   12    0.51288
   13   -0.00000
   14    0.00000
   15   -0.00000
   16    0.00009
   17    0.01733
   18    0.00869
   19   -0.08496
   20   -0.00000
   21    0.00000
   22    0.00681
   23    0.00000
   24   -0.00000
   25   -0.02302
   26    0.00000
   27   -0.00000
   28    0.19751
   29   -0.17337
   30   -0.23692
   31    0.46671
   32    0.00000
   33   -0.00000
   34    0.00000
   35    0.19922
   36    0.01161
   37    0.19922
   38    0.01161
 Ene= 0.0
 Spin= Alpha
 Occup=     0.0000
    1   -0.04906
    2    0.34577
    3   -0.02510
    4    0.00000
    5   -0.00000
    6   -0.05224
    7    0.00000
    8   -0.00000
    9   -0.04567
   10   -0.03898
   11    0.50729
   12    0.34635
   13    0.00001
   14   -0.00000
   15    0.00000
   16   -0.01180
   17    0.05243
   18   -0.05342
   19   -0.00303
   20    0.00000
   21   -0.00000
   22   -0.08487
   23   -0.00000
   24    0.00000
   25    0.20255
   26   -0.00000
   27    0.00000
   28    0.38437
   29   -0.23309
   30   -0.18917
   31    0.25416
   32   -0.00000
   33    0.00000
   34   -0.00000
   35   -0.24398
   36   -0.19019
   37   -0.24398
   38   -0.19019
 Ene= 0.0
 Spin= Alpha
 Occup=     0.0000
    1    0.00000
    2   -0.00000
    3   -0.00000
    4    0.00000
    5    0.00000
    6    0.00000
    7    0.00000
    8    0.00000
    9    0.00000
   10    0.00000
   11   -0.00000
   12   -0.00000
   13    0.44239
   14   -0.00000
   15   -0.00000
   16    0.00000
   17   -0.00000
   18    0.00000
   19   -0.00000
   20    0.00000
   21    0.00000
   22    0.00000
   23   -0.00000
   24   -0.00000
   25   -0.00000
   26   -0.00000
   27   -0.00000
   28   -0.00000
   29    0.00000
   30    0.00000
   31   -0.00000
   32   -0.91169
   33    0.00000
   34    0.00000
   35    0.00000
   36    0.00000
   37    0.00000
   38    0.00000
 Ene= 0.0
 Spin= Alpha
 Occup=     0.0000
    1   -0.00000
    2    0.00000
    3    0.00000
    4   -0.00000
    5   -0.00000
    6   -0.00000
    7   -0.00000
    8   -0.00000
    9   -0.00000
   10   -0.00000
   11    0.00000
   12    0.00000
   13   -0.89744
   14    0.00000
   15    0.00000
   16   -0.00000
   17    0.00000
   18   -0.00000
   19    0.00000
   20   -0.00000
   21   -0.00000
   22   -0.00000
   23    0.00000
   24    0.00000
   25    0.00000
   26    0.00000
   27    0.00000
   28    0.00000
   29   -0.00000
   30   -0.00000
   31    0.00000
   32   -0.41222
   33   -0.00000
   34   -0.00000
   35   -0.00000
   36   -0.00000
   37   -0.00000
   38   -0.00000
 Ene= 0.0
 Spin= Alpha
 Occup=     0.0000
    1    0.00000
    2   -0.00000
    3   -0.00000
    4    0.00000
    5   -0.07043
    6    0.00000
    7    0.00000
    8   -0.06218
    9    0.00000
   10   -0.00000
   11   -0.00000
   12   -0.00000
   13    0.00000
   14   -0.00000
   15    0.72531
   16    0.00000
   17   -0.00000
   18    0.00000
   19   -0.00000
   20   -0.00000
   21    0.00783
   22    0.00000
   23    0.00000
   24   -0.01610
   25   -0.00000
   26    0.00000
   27   -0.08081
   28   -0.00000
   29    0.00000
   30    0.00000
   31   -0.00000
   32    0.00000
   33    0.00000
   34   -0.56666
   35    0.00000
   36    0.00000
   37    0.00000
   38    0.00000
 Ene= 0.0
 Spin= Alpha
 Occup=     0.0000
    1   -0.00000
    2    0.00000
    3    0.00000
    4    0.14334
    5    0.00000
    6   -0.00000
    7    0.10354
    8    0.00000
    9   -0.00000
   10   -0.00000
   11    0.00000
   12   -0.00000
   13    0.00000
   14    0.59902
   15    0.00000
   16   -0.00000
   17    0.00000
   18   -0.00000
   19    0.00000
   20    0.02698
   21    0.00000
   22   -0.00000
   23   -0.07714
   24   -0.00000
   25    0.00000
   26   -0.12828
   27   -0.00000
   28   -0.00000
   29   -0.00000
   30    0.00000
   31   -0.00000
   32    0.00000
   33   -0.60241
   34   -0.00000
   35   -0.12583
   36    0.00821
   37    0.12583
   38   -0.00821
