[Molden Format]
[Title]
Written by TeraChem
[Atoms] Angs
C   1   6      0.00000    0.00000    0.00000
S   2   16      0.00000    0.00000    1.62506
H   3   1      0.91509    0.00000   -0.56708
H   4   1     -0.91509   -0.00001   -0.56708
[GTO]
    1 0
 s    6 1.00
         3047.524900             0.001835
          457.369510             0.014037
          103.948690             0.068843
           29.210155             0.232184
            9.286663             0.467941
            3.163927             0.362312
 s    3 1.00
            7.868272            -0.119332
            1.881288            -0.160854
            0.544249             1.143456
 s    1 1.00
            0.168714             1.000000
 p    3 1.00
            7.868272             0.068999
            1.881288             0.316424
            0.544249             0.744308
 p    1 1.00
            0.168714             1.000000
 d    1 1.00
            0.800000             1.000000

    2 0
 s    6 1.00
        21917.100000             0.001869
         3301.490000             0.014230
          754.146000             0.069696
          212.711000             0.238487
           67.989600             0.483307
           23.051500             0.338074
 s    6 1.00
          423.735000            -0.002377
          100.710000            -0.031693
           32.159900            -0.113317
           11.807900             0.056090
            4.631100             0.592255
            1.870250             0.455006
 s    3 1.00
            2.615840            -0.250373
            0.922167             0.066957
            0.341287             1.054506
 s    1 1.00
            0.117167             1.000000
 p    6 1.00
          423.735000             0.004061
          100.710000             0.030681
           32.159900             0.130452
           11.807900             0.327205
            4.631100             0.452851
            1.870250             0.256042
 p    3 1.00
            2.615840            -0.014511
            0.922167             0.310263
            0.341287             0.754483
 p    1 1.00
            0.117167             1.000000
 d    1 1.00
            0.650000             1.000000

    3 0
 s    3 1.00
           18.731137             0.033495
            2.825394             0.234727
            0.640122             0.813757
 s    1 1.00
            0.161278             1.000000

    4 0
 s    3 1.00
           18.731137             0.033495
            2.825394             0.234727
            0.640122             0.813757
 s    1 1.00
            0.161278             1.000000

[MO]
 Ene=   -91.9450
 Spin= Alpha
 Occup= 2.0
    1    0.00003
    2    0.00014
    3   -0.00004
    4    0.00000
    5    0.00000
    6    0.00005
    7   -0.00000
    8   -0.00000
    9   -0.00002
   10    0.00004
   11    0.00001
   12   -0.00011
   13    0.00000
   14    0.00000
   15    0.00000
   16    0.99626
   17    0.01426
   18   -0.01991
   19    0.00246
   20   -0.00000
   21    0.00000
   22   -0.00006
   23    0.00000
   24    0.00000
   25    0.00006
   26   -0.00000
   27    0.00000
   28   -0.00010
   29    0.00693
   30    0.00694
   31    0.00694
   32   -0.00000
   33    0.00000
   34   -0.00000
   35   -0.00001
   36   -0.00012
   37   -0.00001
   38   -0.00012
 Ene=   -11.3227
 Spin= Alpha
 Occup= 2.0
    1   -0.99577
    2   -0.02688
    3    0.01091
    4    0.00000
    5    0.00000
    6   -0.00030
    7   -0.00000
    8   -0.00000
    9    0.00070
   10    0.00166
   11    0.00240
   12    0.00153
   13   -0.00000
   14   -0.00000
   15   -0.00000
   16    0.00002
   17   -0.00004
   18   -0.00032
   19   -0.00279
   20   -0.00000
   21   -0.00000
   22    0.00001
   23    0.00000
   24    0.00000
   25    0.00003
   26    0.00000
   27    0.00000
   28    0.00181
   29    0.00016
   30    0.00002
   31    0.00046
   32    0.00000
   33   -0.00000
   34   -0.00000
   35    0.00011
   36   -0.00183
   37    0.00011
   38   -0.00183
 Ene=    -8.9554
 Spin= Alpha
 Occup= 2.0
    1   -0.00032
    2    0.00021
    3    0.00005
    4   -0.00000
    5   -0.00000
    6   -0.00025
    7    0.00000
    8    0.00000
    9   -0.00036
   10   -0.00005
   11    0.00004
   12   -0.00050
   13   -0.00000
   14   -0.00000
   15   -0.00000
   16   -0.28181
   17    1.03030
   18    0.02336
   19   -0.00559
   20   -0.00000
   21    0.00000
   22   -0.00371
   23   -0.00000
   24    0.00000
   25   -0.00144
   26    0.00000
   27   -0.00000
   28    0.00054
   29   -0.00167
   30   -0.00132
   31   -0.00062
   32   -0.00000
   33    0.00000
   34   -0.00000
   35   -0.00004
   36    0.00032
   37   -0.00004
   38    0.00032
 Ene=    -6.6377
 Spin= Alpha
 Occup= 2.0
    1   -0.00046
    2    0.00025
    3   -0.00226
    4   -0.00000
    5   -0.00000
    6   -0.00042
    7    0.00000
    8    0.00000
    9   -0.00227
   10   -0.00004
   11    0.00017
   12   -0.00038
   13   -0.00000
   14    0.00000
   15   -0.00000
   16    0.00130
   17   -0.00500
   18    0.00339
   19    0.00172
   20   -0.00000
   21    0.00000
   22   -0.99298
   23   -0.00000
   24    0.00000
   25   -0.02360
   26    0.00000
   27   -0.00000
   28    0.00430
   29   -0.00133
   30   -0.00126
   31    0.00072
   32   -0.00000
   33    0.00000
   34   -0.00000
   35    0.00017
   36    0.00026
   37    0.00017
   38    0.00026
 Ene=    -6.6369
 Spin= Alpha
 Occup= 2.0
    1   -0.00000
    2    0.00000
    3   -0.00000
    4   -0.00000
    5    0.00029
    6   -0.00000
    7    0.00000
    8   -0.00049
    9   -0.00000
   10    0.00000
   11    0.00000
   12   -0.00000
   13   -0.00000
   14   -0.00000
   15    0.00039
   16    0.00000
   17   -0.00000
   18    0.00000
   19    0.00000
   20    0.00000
   21   -0.99331
   22   -0.00000
   23    0.00000
   24   -0.02226
   25   -0.00000
   26   -0.00000
   27    0.00563
   28    0.00000
   29   -0.00000
   30   -0.00000
   31    0.00000
   32    0.00000
   33   -0.00000
   34    0.00026
   35    0.00000
   36    0.00000
   37    0.00000
   38    0.00000
 Ene=    -6.6340
 Spin= Alpha
 Occup= 2.0
    1   -0.00000
    2    0.00000
    3   -0.00000
    4    0.00003
    5    0.00000
    6   -0.00000
    7   -0.00114
    8   -0.00000
    9   -0.00000
   10   -0.00000
   11    0.00000
   12   -0.00000
   13    0.00000
   14   -0.00026
   15   -0.00000
   16   -0.00000
   17    0.00000
   18   -0.00000
   19    0.00000
   20    0.99394
   21    0.00000
   22   -0.00000
   23    0.02016
   24    0.00000
   25   -0.00000
   26   -0.00447
   27   -0.00000
   28    0.00000
   29    0.00000
   30    0.00000
   31    0.00000
   32    0.00000
   33   -0.00046
   34   -0.00000
   35   -0.00002
   36    0.00125
   37    0.00002
   38   -0.00125
 Ene=    -1.0636
 Spin= Alpha
 Occup= 2.0
    1    0.16025
    2   -0.31490
    3   -0.27408
    4    0.00000
    5    0.00000
    6   -0.08753
    7    0.00000
    8    0.00000
    9   -0.01430
   10   -0.00782
   11    0.01293
   12   -0.02118
   13   -0.00000
   14    0.00000
   15   -0.00000
   16   -0.04864
   17    0.22544
   18   -0.43600
   19   -0.12661
   20   -0.00000
   21   -0.00000
   22   -0.06815
   23    0.00000
   24    0.00000
   25    0.14920
   26   -0.00000
   27   -0.00000
   28   -0.00578
   29    0.01548
   30    0.01310
   31   -0.04532
   32    0.00000
   33   -0.00000
   34   -0.00000
   35   -0.09118
   36   -0.01369
   37   -0.09118
   38   -0.01369
 Ene=    -0.8173
 Spin= Alpha
 Occup= 2.0
    1   -0.11162
    2    0.22758
    3    0.24336
    4    0.00000
    5   -0.00000
    6   -0.25622
    7    0.00000
    8   -0.00000
    9   -0.09357
   10    0.02856
   11   -0.01163
   12   -0.00538
   13    0.00000
   14    0.00000
   15    0.00000
   16   -0.05044
   17    0.23446
   18   -0.48134
   19   -0.22814
   20   -0.00000
   21    0.00000
   22    0.01148
   23    0.00000
   24   -0.00000
   25   -0.03431
   26    0.00000
   27    0.00000
   28   -0.01112
   29   -0.00085
   30    0.00159
   31   -0.00238
   32   -0.00000
   33    0.00000
   34    0.00000
   35    0.16388
   36    0.07231
   37    0.16388
   38    0.07231
 Ene=    -0.6489
 Spin= Alpha
 Occup= 2.0
    1    0.00000
    2    0.00000
    3   -0.00000
    4    0.45685
    5    0.00000
    6   -0.00000
    7    0.21873
    8    0.00000
    9   -0.00000
   10    0.00000
   11    0.00000
   12   -0.00000
   13   -0.00000
   14   -0.02825
   15   -0.00000
   16    0.00000
   17   -0.00000
   18    0.00000
   19    0.00000
   20   -0.06207
   21   -0.00000
   22   -0.00000
   23    0.15515
   24    0.00000
   25    0.00000
   26    0.03567
   27    0.00000
   28   -0.00000
   29    0.00000
   30    0.00000
   31   -0.00000
   32   -0.00000
   33   -0.02569
   34   -0.00000
   35    0.22776
   36    0.14000
   37   -0.22776
   38   -0.14000
 Ene=    -0.5386
 Spin= Alpha
 Occup= 2.0
    1   -0.03591
    2    0.07386
    3    0.15172
    4    0.00000
    5    0.00000
    6    0.36945
    7   -0.00000
    8    0.00000
    9    0.20576
   10   -0.01761
   11    0.00039
   12    0.01531
   13   -0.00000
   14   -0.00000
   15   -0.00000
   16   -0.02806
   17    0.13371
   18   -0.28224
   19   -0.34985
   20   -0.00000
   21   -0.00000
   22    0.20135
   23    0.00000
   24    0.00000
   25   -0.50659
   26    0.00000
   27    0.00000
   28   -0.10225
   29   -0.03170
   30   -0.02492
   31    0.06406
   32   -0.00000
   33    0.00000
   34   -0.00000
   35   -0.08843
   36   -0.07201
   37   -0.08843
   38   -0.07201
 Ene=    -0.4125
 Spin= Alpha
 Occup= 2.0
    1   -0.00000
    2    0.00000
    3    0.00000
    4   -0.00000
    5    0.31713
    6   -0.00000
    7   -0.00000
    8    0.28152
    9   -0.00000
   10    0.00000
   11   -0.00000
   12   -0.00000
   13   -0.00000
   14   -0.00000
   15    0.02822
   16    0.00000
   17   -0.00000
   18    0.00000
   19    0.00000
   20    0.00000
   21   -0.19801
   22   -0.00000
   23   -0.00000
   24    0.51042
   25    0.00000
   26   -0.00000
   27    0.28042
   28    0.00000
   29    0.00000
   30    0.00000
   31   -0.00000
   32   -0.00000
   33    0.00000
   34   -0.06035
   35    0.00000
   36    0.00000
   37   -0.00000
   38    0.00000
 Ene=    -0.3498
 Spin= Alpha
 Occup= 2.0
    1    0.00000
    2   -0.00000
    3   -0.00000
    4   -0.10319
    5   -0.00000
    6   -0.00000
    7   -0.01945
    8   -0.00000
    9   -0.00000
   10    0.00000
   11    0.00000
   12   -0.00000
   13    0.00000
   14    0.03615
   15    0.00000
   16    0.00000
   17   -0.00000
   18    0.00000
   19    0.00000
   20   -0.25389
   21   -0.00000
   22    0.00000
   23    0.68124
   24    0.00000
   25   -0.00000
   26    0.43819
   27    0.00000
   28   -0.00000
   29    0.00000
   30    0.00000
   31   -0.00000
   32    0.00000
   33   -0.00267
   34   -0.00000
   35   -0.10236
   36   -0.16228
   37    0.10236
   38    0.16228
 Ene=     0.0522
 Spin= Alpha
 Occup= 0.0
    1   -0.00000
    2    0.00000
    3    0.00000
    4   -0.00000
    5    0.39728
    6   -0.00000
    7   -0.00000
    8    0.64016
    9   -0.00000
   10   -0.00000
   11   -0.00000
   12   -0.00000
   13   -0.00000
   14    0.00000
   15   -0.01027
   16   -0.00000
   17    0.00000
   18   -0.00000
   19    0.00000
   20   -0.00000
   21    0.15444
   22   -0.00000
   23    0.00000
   24   -0.40467
   25    0.00000
   26    0.00000
   27   -0.52469
   28    0.00000
   29   -0.00000
   30    0.00000
   31    0.00000
   32    0.00000
   33    0.00000
   34   -0.06279
   35   -0.00000
   36   -0.00000
   37   -0.00000
   38   -0.00000
 Ene=     0.2194
 Spin= Alpha
 Occup= 0.0
    1    0.14528
    2   -0.16665
    3   -2.38363
    4    0.00000
    5    0.00000
    6   -0.02749
    7   -0.00000
    8    0.00000
    9   -0.19197
   10    0.01197
   11    0.01674
   12    0.00507
   13   -0.00000
   14   -0.00000
   15   -0.00000
   16    0.00818
   17   -0.06784
   18   -0.00279
   19    0.99648
   20    0.00000
   21    0.00000
   22    0.06934
   23   -0.00000
   24   -0.00000
   25   -0.17575
   26   -0.00000
   27   -0.00000
   28   -1.14288
   29    0.05058
   30    0.03073
   31   -0.09974
   32    0.00000
   33    0.00000
   34   -0.00000
   35    0.02469
   36    0.88379
   37    0.02469
   38    0.88379
 Ene=     0.2824
 Spin= Alpha
 Occup= 0.0
    1   -0.00000
    2    0.00000
    3   -0.00000
    4    0.33449
    5    0.00000
    6   -0.00000
    7    1.59922
    8    0.00001
    9   -0.00000
   10   -0.00000
   11    0.00000
   12    0.00000
   13    0.00000
   14    0.01883
   15    0.00000
   16    0.00000
   17   -0.00000
   18    0.00000
   19    0.00000
   20   -0.01231
   21   -0.00000
   22    0.00000
   23    0.06451
   24    0.00000
   25   -0.00000
   26   -0.51787
   27   -0.00000
   28   -0.00000
   29    0.00000
   30    0.00000
   31   -0.00000
   32    0.00000
   33   -0.09278
   34   -0.00000
   35   -0.03904
   36   -1.67636
   37    0.03904
   38    1.67636
 Ene=     0.2986
 Spin= Alpha
 Occup= 0.0
    1   -0.01953
    2    0.00434
    3    0.38156
    4   -0.00000
    5   -0.00000
    6   -0.34369
    7   -0.00000
    8   -0.00000
    9   -1.47236
   10   -0.01229
   11    0.00671
   12    0.00531
   13   -0.00000
   14   -0.00000
   15   -0.00000
   16    0.01555
   17   -0.07766
   18    0.15901
   19    1.15592
   20    0.00000
   21    0.00000
   22    0.03217
   23   -0.00000
   24   -0.00000
   25   -0.06970
   26   -0.00000
   27    0.00000
   28   -1.36969
   29    0.03646
   30    0.07707
   31   -0.10404
   32   -0.00000
   33    0.00000
   34    0.00000
   35   -0.03175
   36   -1.30884
   37   -0.03175
   38   -1.30884
 Ene=     0.4577
 Spin= Alpha
 Occup= 0.0
    1   -0.02345
    2   -0.02902
    3   -0.10479
    4   -0.00000
    5   -0.00000
    6   -0.03688
    7   -0.00000
    8   -0.00000
    9   -0.12482
   10    0.00810
   11    0.02827
   12   -0.06359
   13   -0.00000
   14    0.00000
   15   -0.00000
   16   -0.06916
   17    0.08921
   18   -1.52143
   19    2.01742
   20   -0.00000
   21    0.00000
   22    0.00813
   23    0.00000
   24   -0.00000
   25   -0.01890
   26   -0.00000
   27    0.00000
   28   -0.26241
   29   -0.05385
   30   -0.04956
   31   -0.14633
   32   -0.00000
   33   -0.00000
   34    0.00000
   35   -0.05234
   36   -0.23026
   37   -0.05234
   38   -0.23026
 Ene=     0.5464
 Spin= Alpha
 Occup= 0.0
    1   -0.00000
    2    0.00000
    3    0.00000
    4   -0.00000
    5    0.11086
    6   -0.00000
    7   -0.00000
    8    0.03932
    9    0.00000
   10    0.00000
   11    0.00000
   12   -0.00000
   13   -0.00000
   14   -0.00000
   15    0.04985
   16   -0.00000
   17   -0.00000
   18   -0.00000
   19   -0.00000
   20    0.00000
   21   -0.29381
   22   -0.00000
   23   -0.00000
   24    1.18927
   25    0.00000
   26    0.00000
   27   -1.25050
   28   -0.00000
   29    0.00000
   30    0.00000
   31   -0.00000
   32   -0.00000
   33    0.00000
   34   -0.08501
   35    0.00000
   36   -0.00000
   37    0.00000
   38   -0.00000
 Ene=     0.5674
 Spin= Alpha
 Occup= 0.0
    1   -0.00000
    2    0.00000
    3    0.00000
    4   -0.14104
    5   -0.00000
    6    0.00000
    7   -0.04223
    8   -0.00000
    9    0.00000
   10    0.00000
   11    0.00000
   12   -0.00000
   13   -0.00000
   14    0.02229
   15    0.00000
   16    0.00000
   17   -0.00000
   18    0.00000
   19   -0.00000
   20   -0.28876
   21   -0.00000
   22   -0.00000
   23    1.18685
   24    0.00000
   25    0.00000
   26   -1.28359
   27   -0.00000
   28    0.00000
   29   -0.00000
   30    0.00000
   31    0.00000
   32   -0.00000
   33   -0.02630
   34   -0.00000
   35    0.00062
   36    0.38794
   37   -0.00062
   38   -0.38794
 Ene=     0.5871
 Spin= Alpha
 Occup= 0.0
    1   -0.04908
    2    0.12122
    3   -0.08898
    4    0.00000
    5   -0.00000
    6   -0.04545
    7   -0.00000
    8    0.00000
    9    1.11635
   10    0.06459
   11    0.03213
   12   -0.10023
   13    0.00000
   14   -0.00000
   15   -0.00000
   16   -0.00414
   17    0.00378
   18   -0.08203
   19   -0.62308
   20    0.00000
   21    0.00000
   22   -0.29646
   23   -0.00000
   24   -0.00000
   25    1.24709
   26    0.00000
   27    0.00000
   28   -0.72597
   29   -0.01136
   30   -0.02360
   31   -0.00720
   32    0.00000
   33   -0.00000
   34   -0.00000
   35    0.07586
   36    0.20610
   37    0.07586
   38    0.20610
 Ene=     0.7300
 Spin= Alpha
 Occup= 0.0
    1   -0.03123
    2   -0.10899
    3    0.18909
    4   -0.00000
    5   -0.00000
    6    0.73107
    7    0.00000
    8   -0.00000
    9   -1.81720
   10   -0.10640
   11    0.05642
   12   -0.03590
   13   -0.00000
   14    0.00000
   15   -0.00000
   16   -0.00989
   17    0.04997
   18   -0.12966
   19    1.10804
   20   -0.00000
   21   -0.00000
   22   -0.12803
   23   -0.00000
   24    0.00000
   25    0.38831
   26   -0.00000
   27   -0.00000
   28   -0.96549
   29   -0.16356
   30   -0.07171
   31    0.29943
   32   -0.00000
   33   -0.00000
   34    0.00000
   35   -0.38500
   36   -0.45919
   37   -0.38500
   38   -0.45919
 Ene=     0.7427
 Spin= Alpha
 Occup= 0.0
    1    0.00000
    2    0.00000
    3   -0.00000
    4   -0.57882
    5   -0.00000
    6   -0.00000
    7    1.36476
    8    0.00001
    9    0.00000
   10    0.00000
   11   -0.00000
   12    0.00000
   13    0.00000
   14    0.15038
   15    0.00000
   16    0.00000
   17   -0.00000
   18    0.00000
   19   -0.00000
   20    0.04677
   21    0.00000
   22    0.00000
   23   -0.17801
   24   -0.00000
   25   -0.00000
   26   -0.29195
   27   -0.00000
   28    0.00000
   29    0.00000
   30    0.00000
   31   -0.00000
   32    0.00000
   33   -0.39407
   34   -0.00000
   35   -0.43721
   36   -0.12367
   37    0.43721
   38    0.12367
 Ene=     0.7999
 Spin= Alpha
 Occup= 0.0
    1   -0.00000
    2    0.00000
    3    0.00000
    4   -0.00000
    5    1.11580
    6   -0.00000
    7    0.00000
    8   -1.20694
    9   -0.00000
   10   -0.00000
   11    0.00000
   12    0.00000
   13   -0.00000
   14   -0.00000
   15    0.01945
   16   -0.00000
   17    0.00000
   18   -0.00000
   19    0.00000
   20   -0.00000
   21    0.04833
   22   -0.00000
   23    0.00000
   24   -0.17997
   25    0.00000
   26   -0.00000
   27    0.48266
   28   -0.00000
   29   -0.00000
   30    0.00000
   31    0.00000
   32   -0.00000
   33   -0.00000
   34    0.00183
   35   -0.00000
   36   -0.00000
   37   -0.00000
   38   -0.00000
 Ene=     1.0344
 Spin= Alpha
 Occup= 0.0
    1   -0.00000
    2   -0.00001
    3    0.00002
    4   -0.00000
    5    0.06888
    6   -0.00001
    7   -0.00000
    8    0.25164
    9    0.00002
   10   -0.00000
   11    0.00000
   12   -0.00000
   13    0.00000
   14    0.00000
   15   -0.23239
   16    0.00000
   17   -0.00000
   18    0.00000
   19   -0.00002
   20    0.00000
   21   -0.04578
   22    0.00000
   23   -0.00000
   24    0.18207
   25   -0.00000
   26    0.00000
   27   -0.24244
   28    0.00002
   29    0.00000
   30   -0.00000
   31   -0.00000
   32    0.00000
   33   -0.00000
   34    0.93526
   35   -0.00001
   36    0.00001
   37   -0.00001
   38    0.00001
 Ene=     1.0472
 Spin= Alpha
 Occup= 0.0
    1   -0.01936
    2   -0.54719
    3    1.36465
    4    0.00000
    5   -0.00000
    6   -0.09852
    7   -0.00000
    8    0.00000
    9    0.56638
   10   -0.08728
   11    0.03875
   12   -0.07190
   13   -0.00000
   14    0.00000
   15    0.00000
   16    0.00442
   17   -0.00413
   18    0.10529
   19   -0.86302
   20    0.00000
   21    0.00000
   22    0.00962
   23   -0.00000
   24   -0.00000
   25    0.02040
   26    0.00000
   27    0.00000
   28    0.57384
   29   -0.75610
   30    0.87281
   31   -0.11678
   32   -0.00001
   33   -0.00000
   34   -0.00000
   35   -0.01478
   36    0.00530
   37   -0.01478
   38    0.00529
 Ene=     1.0489
 Spin= Alpha
 Occup= 0.0
    1    0.00000
    2    0.00000
    3   -0.00000
    4   -0.00000
    5   -0.00000
    6    0.00000
    7    0.00001
    8   -0.00000
    9   -0.00000
   10   -0.00000
   11    0.00000
   12    0.00000
   13    0.07448
   14   -0.00000
   15    0.00000
   16   -0.00000
   17    0.00000
   18   -0.00000
   19    0.00000
   20   -0.00000
   21    0.00000
   22   -0.00000
   23   -0.00000
   24   -0.00000
   25   -0.00000
   26   -0.00000
   27    0.00000
   28   -0.00000
   29   -0.00001
   30    0.00001
   31    0.00000
   32    0.99474
   33    0.00000
   34   -0.00000
   35    0.00000
   36   -0.00001
   37   -0.00000
   38    0.00001
 Ene=     1.0900
 Spin= Alpha
 Occup= 0.0
    1   -0.09285
    2   -0.93449
    3    2.81954
    4    0.00000
    5   -0.00000
    6   -0.57196
    7   -0.00000
    8   -0.00000
    9    1.51485
   10   -0.19616
   11    0.09914
   12   -0.11415
   13   -0.00000
   14    0.00000
   15    0.00000
   16    0.01317
   17   -0.00979
   18    0.33903
   19   -2.19279
   20   -0.00000
   21    0.00000
   22    0.02283
   23    0.00000
   24   -0.00000
   25    0.03716
   26    0.00000
   27    0.00000
   28    1.40918
   29    0.34263
   30   -0.10691
   31   -0.24675
   32    0.00000
   33   -0.00000
   34   -0.00001
   35   -0.60358
   36    0.46297
   37   -0.60358
   38    0.46297
 Ene=     1.1000
 Spin= Alpha
 Occup= 0.0
    1   -0.00000
    2   -0.00000
    3    0.00000
    4   -1.03933
    5   -0.00000
    6   -0.00000
    7    2.14314
    8    0.00001
    9    0.00000
   10   -0.00000
   11    0.00000
   12   -0.00000
   13   -0.00000
   14   -0.19727
   15   -0.00000
   16    0.00000
   17   -0.00000
   18    0.00000
   19   -0.00000
   20    0.00426
   21    0.00000
   22    0.00000
   23   -0.05784
   24   -0.00000
   25    0.00000
   26   -0.30877
   27   -0.00000
   28    0.00000
   29    0.00000
   30    0.00000
   31   -0.00000
   32   -0.00001
   33    0.34846
   34    0.00000
   35    0.46202
   36   -1.60624
   37   -0.46202
   38    1.60624
 Ene=     1.1718
 Spin= Alpha
 Occup= 0.0
    1    0.00736
    2    1.61793
    3   -3.72952
    4   -0.00000
    5   -0.00000
    6   -0.43955
    7    0.00000
    8    0.00001
    9    0.31050
   10   -0.03577
   11    0.14274
   12    0.18731
   13   -0.00000
   14   -0.00000
   15   -0.00000
   16   -0.00150
   17   -0.00253
   18   -0.04572
   19    0.73177
   20    0.00000
   21    0.00000
   22    0.00492
   23   -0.00000
   24   -0.00000
   25   -0.10618
   26   -0.00000
   27   -0.00000
   28   -0.49045
   29   -0.23782
   30    0.11020
   31    0.14251
   32   -0.00000
   33    0.00000
   34   -0.00000
   35   -0.47013
   36    1.26649
   37   -0.47013
   38    1.26649
 Ene=     1.3285
 Spin= Alpha
 Occup= 0.0
    1   -0.00000
    2    0.00000
    3   -0.00000
    4   -0.12956
    5   -0.00000
    6    0.00000
    7   -1.03886
    8   -0.00000
    9   -0.00000
   10    0.00000
   11    0.00000
   12    0.00000
   13   -0.00000
   14   -0.06091
   15   -0.00000
   16    0.00000
   17    0.00000
   18    0.00000
   19    0.00000
   20   -0.00881
   21   -0.00000
   22    0.00000
   23    0.01249
   24    0.00000
   25   -0.00000
   26    0.41537
   27    0.00000
   28    0.00000
   29    0.00000
   30    0.00000
   31   -0.00000
   32    0.00000
   33   -0.89682
   34   -0.00000
   35    0.57798
   36    0.10844
   37   -0.57798
   38   -0.10844
 Ene=     1.4002
 Spin= Alpha
 Occup= 0.0
    1   -0.04428
    2    0.59142
    3   -0.29529
    4    0.00000
    5   -0.00000
    6    0.64229
    7    0.00000
    8    0.00000
    9   -0.29423
   10    0.10806
   11    0.13929
   12   -0.12868
   13   -0.00000
   14    0.00000
   15   -0.00000
   16    0.00017
   17    0.05213
   18    0.14378
   19   -0.26674
   20    0.00000
   21    0.00000
   22   -0.03865
   23   -0.00000
   24   -0.00000
   25    0.05777
   26   -0.00000
   27    0.00000
   28    0.26488
   29    0.51107
   30    0.49716
   31   -0.90510
   32    0.00000
   33    0.00000
   34   -0.00000
   35   -0.06404
   36    0.10778
   37   -0.06404
   38    0.10778
 Ene=     1.9024
 Spin= Alpha
 Occup= 0.0
    1   -0.00000
    2    0.00000
    3    0.00000
    4    0.00000
    5    0.00000
    6    0.00000
    7   -0.00001
    8   -0.00000
    9    0.00000
   10   -0.00001
   11    0.00001
   12    0.00000
   13    0.99778
   14   -0.00001
   15   -0.00000
   16   -0.00000
   17    0.00000
   18   -0.00000
   19   -0.00000
   20   -0.00000
   21    0.00000
   22   -0.00000
   23    0.00000
   24   -0.00000
   25    0.00000
   26    0.00000
   27    0.00000
   28    0.00000
   29    0.00000
   30   -0.00000
   31   -0.00000
   32   -0.10771
   33   -0.00000
   34   -0.00000
   35    0.00000
   36    0.00000
   37   -0.00000
   38   -0.00000
 Ene=     2.1096
 Spin= Alpha
 Occup= 0.0
    1   -0.00000
    2   -0.00000
    3    0.00000
    4   -0.00000
    5    0.03678
    6   -0.00000
    7    0.00000
    8   -0.20349
    9   -0.00000
   10    0.00001
   11   -0.00001
   12   -0.00000
   13   -0.00000
   14    0.00000
   15   -1.00366
   16    0.00000
   17    0.00000
   18    0.00000
   19   -0.00000
   20    0.00000
   21   -0.04122
   22    0.00000
   23   -0.00000
   24    0.13740
   25   -0.00000
   26   -0.00000
   27    0.11442
   28    0.00000
   29   -0.00000
   30    0.00000
   31   -0.00000
   32    0.00000
   33    0.00000
   34   -0.44473
   35   -0.00000
   36   -0.00000
   37   -0.00000
   38   -0.00000
 Ene=     2.3302
 Spin= Alpha
 Occup= 0.0
    1    0.05976
    2    0.19715
    3   -1.10006
    4   -0.00000
    5    0.00000
    6    0.07459
    7   -0.00000
    8    0.00000
    9    0.13807
   10   -0.86702
   11    0.99014
   12   -0.02151
   13   -0.00001
   14    0.00000
   15   -0.00001
   16   -0.00077
   17   -0.01029
   18   -0.06313
   19    0.31400
   20    0.00000
   21   -0.00000
   22    0.01252
   23   -0.00000
   24    0.00000
   25   -0.06249
   26    0.00000
   27   -0.00000
   28   -0.20267
   29    0.03594
   30   -0.10199
   31    0.08190
   32    0.00000
   33    0.00000
   34   -0.00000
   35    0.58613
   36    0.06847
   37    0.58613
   38    0.06847
 Ene=     2.5485
 Spin= Alpha
 Occup= 0.0
    1    0.00000
    2    0.00000
    3   -0.00000
    4   -0.16983
    5   -0.00000
    6   -0.00000
    7   -0.44390
    8   -0.00000
    9   -0.00000
   10    0.00000
   11    0.00000
   12   -0.00000
   13    0.00001
   14    1.13893
   15    0.00000
   16    0.00000
   17   -0.00000
   18    0.00000
   19    0.00000
   20    0.03360
   21    0.00000
   22    0.00000
   23   -0.11984
   24   -0.00000
   25   -0.00000
   26    0.13140
   27    0.00000
   28   -0.00000
   29   -0.00000
   30   -0.00000
   31    0.00000
   32   -0.00000
   33    0.21076
   34    0.00000
   35    0.69066
   36   -0.07850
   37   -0.69066
   38    0.07850
 Ene=     2.5801
 Spin= Alpha
 Occup= 0.0
    1   -0.06620
    2   -0.31863
    3    1.50294
    4   -0.00000
    5   -0.00000
    6    0.18031
    7   -0.00000
    8    0.00000
    9    1.10351
   10   -0.68248
   11   -0.54110
   12    1.13623
   13   -0.00000
   14    0.00000
   15   -0.00000
   16   -0.02778
   17    0.10104
   18   -0.62483
   19   -1.00684
   20    0.00000
   21   -0.00000
   22   -0.15788
   23   -0.00000
   24    0.00000
   25    0.81978
   26    0.00000
   27   -0.00000
   28    0.49674
   29    0.38695
   30    0.37966
   31   -0.54800
   32    0.00000
   33    0.00000
   34   -0.00000
   35    0.07730
   36    0.06225
   37    0.07730
   38    0.06225
 Ene=     4.3382
 Spin= Alpha
 Occup= 0.0
    1   -0.20050
    2    1.09922
    3    0.81846
    4   -0.00000
    5    0.00000
    6    0.07606
    7    0.00000
    8   -0.00000
    9    0.13329
   10   -0.80669
   11   -0.75751
   12   -0.49261
   13   -0.00000
   14   -0.00000
   15   -0.00000
   16    0.15521
   17   -0.71354
   18    5.85999
   19   -0.51410
   20    0.00000
   21   -0.00000
   22   -0.01185
   23   -0.00000
   24    0.00000
   25    0.09466
   26   -0.00000
   27    0.00000
   28    0.12608
   29   -2.46607
   30   -2.47217
   31   -2.53156
   32    0.00000
   33    0.00000
   34   -0.00000
   35    0.08823
   36   -0.14688
   37    0.08823
   38   -0.14688
 Ene=     4.5222
 Spin= Alpha
 Occup= 0.0
    1   -0.42650
    2    2.84317
    3    1.73836
    4   -0.00000
    5    0.00000
    6   -0.09041
    7    0.00000
    8   -0.00000
    9    0.02562
   10   -1.70167
   11   -1.65144
   12   -1.87461
   13   -0.00000
   14   -0.00000
   15   -0.00000
   16   -0.06360
   17    0.28697
   18   -2.59244
   19   -0.26174
   20   -0.00000
   21   -0.00000
   22    0.04884
   23    0.00000
   24    0.00000
   25   -0.16964
   26   -0.00000
   27    0.00000
   28    0.27723
   29    1.06167
   30    1.04484
   31    1.32013
   32    0.00000
   33   -0.00000
   34   -0.00000
   35    0.15359
   36   -0.37891
   37    0.15359
   38   -0.37891
